+ 0.2 0 1 tcp 40 ------- 1 0.0 2.0 0 0
- 0.2 0 1 tcp 40 ------- 1 0.0 2.0 0 0
r 0.21016 0 1 tcp 40 ------- 1 0.0 2.0 0 0
+ 0.21016 1 2 tcp 40 ------- 1 0.0 2.0 0 0
- 0.21016 1 2 tcp 40 ------- 1 0.0 2.0 0 0
r 0.220348 1 2 tcp 40 ------- 1 0.0 2.0 0 0
+ 0.220348 2 1 ack 40 ------- 1 2.0 0.0 0 1
- 0.220348 2 1 ack 40 ------- 1 2.0 0.0 0 1
r 0.230536 2 1 ack 40 ------- 1 2.0 0.0 0 1
+ 0.230536 1 0 ack 40 ------- 1 2.0 0.0 0 1
- 0.230536 1 0 ack 40 ------- 1 2.0 0.0 0 1
r 0.240696 1 0 ack 40 ------- 1 2.0 0.0 0 1
+ 0.240696 0 1 tcp 1040 ------- 1 0.0 2.0 1 2
- 0.240696 0 1 tcp 1040 ------- 1 0.0 2.0 1 2
+ 0.240696 0 1 tcp 1040 ------- 1 0.0 2.0 2 3
- 0.244856 0 1 tcp 1040 ------- 1 0.0 2.0 2 3
r 0.254856 0 1 tcp 1040 ------- 1 0.0 2.0 1 2
+ 0.254856 1 2 tcp 1040 ------- 1 0.0 2.0 1 2
- 0.254856 1 2 tcp 1040 ------- 1 0.0 2.0 1 2
r 0.259016 0 1 tcp 1040 ------- 1 0.0 2.0 2 3
+ 0.259016 1 2 tcp 1040 ------- 1 0.0 2.0 2 3
- 0.259751 1 2 tcp 1040 ------- 1 0.0 2.0 2 3
r 0.269751 1 2 tcp 1040 ------- 1 0.0 2.0 1 2
+ 0.269751 2 1 ack 40 ------- 1 2.0 0.0 1 4
- 0.269751 2 1 ack 40 ------- 1 2.0 0.0 1 4
r 0.274645 1 2 tcp 1040 ------- 1 0.0 2.0 2 3
+ 0.274645 2 1 ack 40 ------- 1 2.0 0.0 2 5
- 0.274645 2 1 ack 40 ------- 1 2.0 0.0 2 5
r 0.279939 2 1 ack 40 ------- 1 2.0 0.0 1 4
+ 0.279939 1 0 ack 40 ------- 1 2.0 0.0 1 4
- 0.279939 1 0 ack 40 ------- 1 2.0 0.0 1 4
r 0.284833 2 1 ack 40 ------- 1 2.0 0.0 2 5
+ 0.284833 1 0 ack 40 ------- 1 2.0 0.0 2 5
- 0.284833 1 0 ack 40 ------- 1 2.0 0.0 2 5
r 0.290099 1 0 ack 40 ------- 1 2.0 0.0 1 4
+ 0.290099 0 1 tcp 1040 ------- 1 0.0 2.0 3 6
- 0.290099 0 1 tcp 1040 ------- 1 0.0 2.0 3 6
+ 0.290099 0 1 tcp 1040 ------- 1 0.0 2.0 4 7
- 0.294259 0 1 tcp 1040 ------- 1 0.0 2.0 4 7
r 0.294993 1 0 ack 40 ------- 1 2.0 0.0 2 5
+ 0.294993 0 1 tcp 1040 ------- 1 0.0 2.0 5 8
+ 0.294993 0 1 tcp 1040 ------- 1 0.0 2.0 6 9
- 0.298419 0 1 tcp 1040 ------- 1 0.0 2.0 5 8
- 0.302579 0 1 tcp 1040 ------- 1 0.0 2.0 6 9
r 0.304259 0 1 tcp 1040 ------- 1 0.0 2.0 3 6
+ 0.304259 1 2 tcp 1040 ------- 1 0.0 2.0 3 6
- 0.304259 1 2 tcp 1040 ------- 1 0.0 2.0 3 6
r 0.308419 0 1 tcp 1040 ------- 1 0.0 2.0 4 7
+ 0.308419 1 2 tcp 1040 ------- 1 0.0 2.0 4 7
- 0.309153 1 2 tcp 1040 ------- 1 0.0 2.0 4 7
r 0.312579 0 1 tcp 1040 ------- 1 0.0 2.0 5 8
+ 0.312579 1 2 tcp 1040 ------- 1 0.0 2.0 5 8
- 0.314047 1 2 tcp 1040 ------- 1 0.0 2.0 5 8
r 0.316739 0 1 tcp 1040 ------- 1 0.0 2.0 6 9
+ 0.316739 1 2 tcp 1040 ------- 1 0.0 2.0 6 9
- 0.318941 1 2 tcp 1040 ------- 1 0.0 2.0 6 9
r 0.319153 1 2 tcp 1040 ------- 1 0.0 2.0 3 6
+ 0.319153 2 1 ack 40 ------- 1 2.0 0.0 3 10
- 0.319153 2 1 ack 40 ------- 1 2.0 0.0 3 10
r 0.324047 1 2 tcp 1040 ------- 1 0.0 2.0 4 7
+ 0.324047 2 1 ack 40 ------- 1 2.0 0.0 4 11
- 0.324047 2 1 ack 40 ------- 1 2.0 0.0 4 11
r 0.328941 1 2 tcp 1040 ------- 1 0.0 2.0 5 8
+ 0.328941 2 1 ack 40 ------- 1 2.0 0.0 5 12
- 0.328941 2 1 ack 40 ------- 1 2.0 0.0 5 12
r 0.329341 2 1 ack 40 ------- 1 2.0 0.0 3 10
+ 0.329341 1 0 ack 40 ------- 1 2.0 0.0 3 10
- 0.329341 1 0 ack 40 ------- 1 2.0 0.0 3 10
r 0.333835 1 2 tcp 1040 ------- 1 0.0 2.0 6 9
+ 0.333835 2 1 ack 40 ------- 1 2.0 0.0 6 13
- 0.333835 2 1 ack 40 ------- 1 2.0 0.0 6 13
r 0.334235 2 1 ack 40 ------- 1 2.0 0.0 4 11
+ 0.334235 1 0 ack 40 ------- 1 2.0 0.0 4 11
- 0.334235 1 0 ack 40 ------- 1 2.0 0.0 4 11
r 0.339129 2 1 ack 40 ------- 1 2.0 0.0 5 12
+ 0.339129 1 0 ack 40 ------- 1 2.0 0.0 5 12
- 0.339129 1 0 ack 40 ------- 1 2.0 0.0 5 12
r 0.339501 1 0 ack 40 ------- 1 2.0 0.0 3 10
+ 0.339501 0 1 tcp 1040 ------- 1 0.0 2.0 7 14
- 0.339501 0 1 tcp 1040 ------- 1 0.0 2.0 7 14
+ 0.339501 0 1 tcp 1040 ------- 1 0.0 2.0 8 15
- 0.343661 0 1 tcp 1040 ------- 1 0.0 2.0 8 15
r 0.344024 2 1 ack 40 ------- 1 2.0 0.0 6 13
+ 0.344024 1 0 ack 40 ------- 1 2.0 0.0 6 13
- 0.344024 1 0 ack 40 ------- 1 2.0 0.0 6 13
r 0.344395 1 0 ack 40 ------- 1 2.0 0.0 4 11
+ 0.344395 0 1 tcp 1040 ------- 1 0.0 2.0 9 16
+ 0.344395 0 1 tcp 1040 ------- 1 0.0 2.0 10 17
- 0.347821 0 1 tcp 1040 ------- 1 0.0 2.0 9 16
r 0.349289 1 0 ack 40 ------- 1 2.0 0.0 5 12
+ 0.349289 0 1 tcp 1040 ------- 1 0.0 2.0 11 18
+ 0.349289 0 1 tcp 1040 ------- 1 0.0 2.0 12 19
- 0.351981 0 1 tcp 1040 ------- 1 0.0 2.0 10 17
r 0.353661 0 1 tcp 1040 ------- 1 0.0 2.0 7 14
+ 0.353661 1 2 tcp 1040 ------- 1 0.0 2.0 7 14
- 0.353661 1 2 tcp 1040 ------- 1 0.0 2.0 7 14
r 0.354184 1 0 ack 40 ------- 1 2.0 0.0 6 13
+ 0.354184 0 1 tcp 1040 ------- 1 0.0 2.0 13 20
+ 0.354184 0 1 tcp 1040 ------- 1 0.0 2.0 14 21
- 0.356141 0 1 tcp 1040 ------- 1 0.0 2.0 11 18
r 0.357821 0 1 tcp 1040 ------- 1 0.0 2.0 8 15
+ 0.357821 1 2 tcp 1040 ------- 1 0.0 2.0 8 15
- 0.358555 1 2 tcp 1040 ------- 1 0.0 2.0 8 15
- 0.360301 0 1 tcp 1040 ------- 1 0.0 2.0 12 19
r 0.361981 0 1 tcp 1040 ------- 1 0.0 2.0 9 16
+ 0.361981 1 2 tcp 1040 ------- 1 0.0 2.0 9 16
- 0.363449 1 2 tcp 1040 ------- 1 0.0 2.0 9 16
- 0.364461 0 1 tcp 1040 ------- 1 0.0 2.0 13 20
r 0.366141 0 1 tcp 1040 ------- 1 0.0 2.0 10 17
+ 0.366141 1 2 tcp 1040 ------- 1 0.0 2.0 10 17
- 0.368344 1 2 tcp 1040 ------- 1 0.0 2.0 10 17
r 0.368555 1 2 tcp 1040 ------- 1 0.0 2.0 7 14
+ 0.368555 2 1 ack 40 ------- 1 2.0 0.0 7 22
- 0.368555 2 1 ack 40 ------- 1 2.0 0.0 7 22
- 0.368621 0 1 tcp 1040 ------- 1 0.0 2.0 14 21
r 0.370301 0 1 tcp 1040 ------- 1 0.0 2.0 11 18
+ 0.370301 1 2 tcp 1040 ------- 1 0.0 2.0 11 18
- 0.373238 1 2 tcp 1040 ------- 1 0.0 2.0 11 18
r 0.373449 1 2 tcp 1040 ------- 1 0.0 2.0 8 15
+ 0.373449 2 1 ack 40 ------- 1 2.0 0.0 8 23
- 0.373449 2 1 ack 40 ------- 1 2.0 0.0 8 23
r 0.374461 0 1 tcp 1040 ------- 1 0.0 2.0 12 19
+ 0.374461 1 2 tcp 1040 ------- 1 0.0 2.0 12 19
- 0.378132 1 2 tcp 1040 ------- 1 0.0 2.0 12 19
r 0.378344 1 2 tcp 1040 ------- 1 0.0 2.0 9 16
+ 0.378344 2 1 ack 40 ------- 1 2.0 0.0 9 24
- 0.378344 2 1 ack 40 ------- 1 2.0 0.0 9 24
r 0.378621 0 1 tcp 1040 ------- 1 0.0 2.0 13 20
+ 0.378621 1 2 tcp 1040 ------- 1 0.0 2.0 13 20
r 0.378744 2 1 ack 40 ------- 1 2.0 0.0 7 22
+ 0.378744 1 0 ack 40 ------- 1 2.0 0.0 7 22
- 0.378744 1 0 ack 40 ------- 1 2.0 0.0 7 22
r 0.382781 0 1 tcp 1040 ------- 1 0.0 2.0 14 21
+ 0.382781 1 2 tcp 1040 ------- 1 0.0 2.0 14 21
- 0.383026 1 2 tcp 1040 ------- 1 0.0 2.0 13 20
r 0.383238 1 2 tcp 1040 ------- 1 0.0 2.0 10 17
+ 0.383238 2 1 ack 40 ------- 1 2.0 0.0 10 25
- 0.383238 2 1 ack 40 ------- 1 2.0 0.0 10 25
r 0.383638 2 1 ack 40 ------- 1 2.0 0.0 8 23
+ 0.383638 1 0 ack 40 ------- 1 2.0 0.0 8 23
- 0.383638 1 0 ack 40 ------- 1 2.0 0.0 8 23
- 0.38792 1 2 tcp 1040 ------- 1 0.0 2.0 14 21
r 0.388132 1 2 tcp 1040 ------- 1 0.0 2.0 11 18
+ 0.388132 2 1 ack 40 ------- 1 2.0 0.0 11 26
- 0.388132 2 1 ack 40 ------- 1 2.0 0.0 11 26
r 0.388532 2 1 ack 40 ------- 1 2.0 0.0 9 24
+ 0.388532 1 0 ack 40 ------- 1 2.0 0.0 9 24
- 0.388532 1 0 ack 40 ------- 1 2.0 0.0 9 24
r 0.388904 1 0 ack 40 ------- 1 2.0 0.0 7 22
+ 0.388904 0 1 tcp 1040 ------- 1 0.0 2.0 15 27
- 0.388904 0 1 tcp 1040 ------- 1 0.0 2.0 15 27
+ 0.388904 0 1 tcp 1040 ------- 1 0.0 2.0 16 28
r 0.393026 1 2 tcp 1040 ------- 1 0.0 2.0 12 19
+ 0.393026 2 1 ack 40 ------- 1 2.0 0.0 12 29
- 0.393026 2 1 ack 40 ------- 1 2.0 0.0 12 29
- 0.393064 0 1 tcp 1040 ------- 1 0.0 2.0 16 28
r 0.393426 2 1 ack 40 ------- 1 2.0 0.0 10 25
+ 0.393426 1 0 ack 40 ------- 1 2.0 0.0 10 25
- 0.393426 1 0 ack 40 ------- 1 2.0 0.0 10 25
r 0.393798 1 0 ack 40 ------- 1 2.0 0.0 8 23
+ 0.393798 0 1 tcp 1040 ------- 1 0.0 2.0 17 30
+ 0.393798 0 1 tcp 1040 ------- 1 0.0 2.0 18 31
- 0.397224 0 1 tcp 1040 ------- 1 0.0 2.0 17 30
r 0.39792 1 2 tcp 1040 ------- 1 0.0 2.0 13 20
+ 0.39792 2 1 ack 40 ------- 1 2.0 0.0 13 32
- 0.39792 2 1 ack 40 ------- 1 2.0 0.0 13 32
r 0.39832 2 1 ack 40 ------- 1 2.0 0.0 11 26
+ 0.39832 1 0 ack 40 ------- 1 2.0 0.0 11 26
- 0.39832 1 0 ack 40 ------- 1 2.0 0.0 11 26
r 0.398692 1 0 ack 40 ------- 1 2.0 0.0 9 24
+ 0.398692 0 1 tcp 1040 ------- 1 0.0 2.0 19 33
+ 0.398692 0 1 tcp 1040 ------- 1 0.0 2.0 20 34
- 0.401384 0 1 tcp 1040 ------- 1 0.0 2.0 18 31
r 0.402814 1 2 tcp 1040 ------- 1 0.0 2.0 14 21
+ 0.402814 2 1 ack 40 ------- 1 2.0 0.0 14 35
- 0.402814 2 1 ack 40 ------- 1 2.0 0.0 14 35
r 0.403064 0 1 tcp 1040 ------- 1 0.0 2.0 15 27
+ 0.403064 1 2 tcp 1040 ------- 1 0.0 2.0 15 27
- 0.403064 1 2 tcp 1040 ------- 1 0.0 2.0 15 27
r 0.403214 2 1 ack 40 ------- 1 2.0 0.0 12 29
+ 0.403214 1 0 ack 40 ------- 1 2.0 0.0 12 29
- 0.403214 1 0 ack 40 ------- 1 2.0 0.0 12 29
r 0.403586 1 0 ack 40 ------- 1 2.0 0.0 10 25
+ 0.403586 0 1 tcp 1040 ------- 1 0.0 2.0 21 36
+ 0.403586 0 1 tcp 1040 ------- 1 0.0 2.0 22 37
- 0.405544 0 1 tcp 1040 ------- 1 0.0 2.0 19 33
r 0.407224 0 1 tcp 1040 ------- 1 0.0 2.0 16 28
+ 0.407224 1 2 tcp 1040 ------- 1 0.0 2.0 16 28
- 0.407958 1 2 tcp 1040 ------- 1 0.0 2.0 16 28
r 0.408108 2 1 ack 40 ------- 1 2.0 0.0 13 32
+ 0.408108 1 0 ack 40 ------- 1 2.0 0.0 13 32
- 0.408108 1 0 ack 40 ------- 1 2.0 0.0 13 32
r 0.40848 1 0 ack 40 ------- 1 2.0 0.0 11 26
+ 0.40848 0 1 tcp 1040 ------- 1 0.0 2.0 23 38
+ 0.40848 0 1 tcp 1040 ------- 1 0.0 2.0 24 39
- 0.409704 0 1 tcp 1040 ------- 1 0.0 2.0 20 34
r 0.411384 0 1 tcp 1040 ------- 1 0.0 2.0 17 30
+ 0.411384 1 2 tcp 1040 ------- 1 0.0 2.0 17 30
- 0.412852 1 2 tcp 1040 ------- 1 0.0 2.0 17 30
r 0.413002 2 1 ack 40 ------- 1 2.0 0.0 14 35
+ 0.413002 1 0 ack 40 ------- 1 2.0 0.0 14 35
- 0.413002 1 0 ack 40 ------- 1 2.0 0.0 14 35
r 0.413374 1 0 ack 40 ------- 1 2.0 0.0 12 29
+ 0.413374 0 1 tcp 1040 ------- 1 0.0 2.0 25 40
+ 0.413374 0 1 tcp 1040 ------- 1 0.0 2.0 26 41
- 0.413864 0 1 tcp 1040 ------- 1 0.0 2.0 21 36
r 0.415544 0 1 tcp 1040 ------- 1 0.0 2.0 18 31
+ 0.415544 1 2 tcp 1040 ------- 1 0.0 2.0 18 31
- 0.417746 1 2 tcp 1040 ------- 1 0.0 2.0 18 31
r 0.417958 1 2 tcp 1040 ------- 1 0.0 2.0 15 27
+ 0.417958 2 1 ack 40 ------- 1 2.0 0.0 15 42
- 0.417958 2 1 ack 40 ------- 1 2.0 0.0 15 42
- 0.418024 0 1 tcp 1040 ------- 1 0.0 2.0 22 37
r 0.418268 1 0 ack 40 ------- 1 2.0 0.0 13 32
+ 0.418268 0 1 tcp 1040 ------- 1 0.0 2.0 27 43
+ 0.418268 0 1 tcp 1040 ------- 1 0.0 2.0 28 44
r 0.419704 0 1 tcp 1040 ------- 1 0.0 2.0 19 33
+ 0.419704 1 2 tcp 1040 ------- 1 0.0 2.0 19 33
- 0.422184 0 1 tcp 1040 ------- 1 0.0 2.0 23 38
- 0.42264 1 2 tcp 1040 ------- 1 0.0 2.0 19 33
r 0.422852 1 2 tcp 1040 ------- 1 0.0 2.0 16 28
+ 0.422852 2 1 ack 40 ------- 1 2.0 0.0 16 45
- 0.422852 2 1 ack 40 ------- 1 2.0 0.0 16 45
r 0.423162 1 0 ack 40 ------- 1 2.0 0.0 14 35
+ 0.423162 0 1 tcp 1040 ------- 1 0.0 2.0 29 46
+ 0.423162 0 1 tcp 1040 ------- 1 0.0 2.0 30 47
r 0.423864 0 1 tcp 1040 ------- 1 0.0 2.0 20 34
+ 0.423864 1 2 tcp 1040 ------- 1 0.0 2.0 20 34
- 0.426344 0 1 tcp 1040 ------- 1 0.0 2.0 24 39
- 0.427534 1 2 tcp 1040 ------- 1 0.0 2.0 20 34
r 0.427746 1 2 tcp 1040 ------- 1 0.0 2.0 17 30
+ 0.427746 2 1 ack 40 ------- 1 2.0 0.0 17 48
- 0.427746 2 1 ack 40 ------- 1 2.0 0.0 17 48
r 0.428024 0 1 tcp 1040 ------- 1 0.0 2.0 21 36
+ 0.428024 1 2 tcp 1040 ------- 1 0.0 2.0 21 36
r 0.428146 2 1 ack 40 ------- 1 2.0 0.0 15 42
+ 0.428146 1 0 ack 40 ------- 1 2.0 0.0 15 42
- 0.428146 1 0 ack 40 ------- 1 2.0 0.0 15 42
- 0.430504 0 1 tcp 1040 ------- 1 0.0 2.0 25 40
r 0.432184 0 1 tcp 1040 ------- 1 0.0 2.0 22 37
+ 0.432184 1 2 tcp 1040 ------- 1 0.0 2.0 22 37
- 0.432428 1 2 tcp 1040 ------- 1 0.0 2.0 21 36
r 0.43264 1 2 tcp 1040 ------- 1 0.0 2.0 18 31
+ 0.43264 2 1 ack 40 ------- 1 2.0 0.0 18 49
- 0.43264 2 1 ack 40 ------- 1 2.0 0.0 18 49
r 0.43304 2 1 ack 40 ------- 1 2.0 0.0 16 45
+ 0.43304 1 0 ack 40 ------- 1 2.0 0.0 16 45
- 0.43304 1 0 ack 40 ------- 1 2.0 0.0 16 45
- 0.434664 0 1 tcp 1040 ------- 1 0.0 2.0 26 41
r 0.436344 0 1 tcp 1040 ------- 1 0.0 2.0 23 38
+ 0.436344 1 2 tcp 1040 ------- 1 0.0 2.0 23 38
- 0.437322 1 2 tcp 1040 ------- 1 0.0 2.0 22 37
r 0.437534 1 2 tcp 1040 ------- 1 0.0 2.0 19 33
+ 0.437534 2 1 ack 40 ------- 1 2.0 0.0 19 50
- 0.437534 2 1 ack 40 ------- 1 2.0 0.0 19 50
r 0.437934 2 1 ack 40 ------- 1 2.0 0.0 17 48
+ 0.437934 1 0 ack 40 ------- 1 2.0 0.0 17 48
- 0.437934 1 0 ack 40 ------- 1 2.0 0.0 17 48
r 0.438306 1 0 ack 40 ------- 1 2.0 0.0 15 42
+ 0.438306 0 1 tcp 1040 ------- 1 0.0 2.0 31 51
+ 0.438306 0 1 tcp 1040 ------- 1 0.0 2.0 32 52
- 0.438824 0 1 tcp 1040 ------- 1 0.0 2.0 27 43
r 0.440504 0 1 tcp 1040 ------- 1 0.0 2.0 24 39
+ 0.440504 1 2 tcp 1040 ------- 1 0.0 2.0 24 39
- 0.442216 1 2 tcp 1040 ------- 1 0.0 2.0 23 38
r 0.442428 1 2 tcp 1040 ------- 1 0.0 2.0 20 34
+ 0.442428 2 1 ack 40 ------- 1 2.0 0.0 20 53
- 0.442428 2 1 ack 40 ------- 1 2.0 0.0 20 53
r 0.442828 2 1 ack 40 ------- 1 2.0 0.0 18 49
+ 0.442828 1 0 ack 40 ------- 1 2.0 0.0 18 49
- 0.442828 1 0 ack 40 ------- 1 2.0 0.0 18 49
- 0.442984 0 1 tcp 1040 ------- 1 0.0 2.0 28 44
r 0.4432 1 0 ack 40 ------- 1 2.0 0.0 16 45
+ 0.4432 0 1 tcp 1040 ------- 1 0.0 2.0 33 54
+ 0.4432 0 1 tcp 1040 ------- 1 0.0 2.0 34 55
r 0.444664 0 1 tcp 1040 ------- 1 0.0 2.0 25 40
+ 0.444664 1 2 tcp 1040 ------- 1 0.0 2.0 25 40
- 0.447111 1 2 tcp 1040 ------- 1 0.0 2.0 24 39
- 0.447144 0 1 tcp 1040 ------- 1 0.0 2.0 29 46
r 0.447322 1 2 tcp 1040 ------- 1 0.0 2.0 21 36
+ 0.447322 2 1 ack 40 ------- 1 2.0 0.0 21 56
- 0.447322 2 1 ack 40 ------- 1 2.0 0.0 21 56
r 0.447722 2 1 ack 40 ------- 1 2.0 0.0 19 50
+ 0.447722 1 0 ack 40 ------- 1 2.0 0.0 19 50
- 0.447722 1 0 ack 40 ------- 1 2.0 0.0 19 50
r 0.448094 1 0 ack 40 ------- 1 2.0 0.0 17 48
+ 0.448094 0 1 tcp 1040 ------- 1 0.0 2.0 35 57
+ 0.448094 0 1 tcp 1040 ------- 1 0.0 2.0 36 58
r 0.448824 0 1 tcp 1040 ------- 1 0.0 2.0 26 41
+ 0.448824 1 2 tcp 1040 ------- 1 0.0 2.0 26 41
- 0.451304 0 1 tcp 1040 ------- 1 0.0 2.0 30 47
- 0.452005 1 2 tcp 1040 ------- 1 0.0 2.0 25 40
r 0.452216 1 2 tcp 1040 ------- 1 0.0 2.0 22 37
+ 0.452216 2 1 ack 40 ------- 1 2.0 0.0 22 59
- 0.452216 2 1 ack 40 ------- 1 2.0 0.0 22 59
r 0.452616 2 1 ack 40 ------- 1 2.0 0.0 20 53
+ 0.452616 1 0 ack 40 ------- 1 2.0 0.0 20 53
- 0.452616 1 0 ack 40 ------- 1 2.0 0.0 20 53
r 0.452984 0 1 tcp 1040 ------- 1 0.0 2.0 27 43
+ 0.452984 1 2 tcp 1040 ------- 1 0.0 2.0 27 43
r 0.452988 1 0 ack 40 ------- 1 2.0 0.0 18 49
+ 0.452988 0 1 tcp 1040 ------- 1 0.0 2.0 37 60
+ 0.452988 0 1 tcp 1040 ------- 1 0.0 2.0 38 61
- 0.455464 0 1 tcp 1040 ------- 1 0.0 2.0 31 51
- 0.456899 1 2 tcp 1040 ------- 1 0.0 2.0 26 41
r 0.457111 1 2 tcp 1040 ------- 1 0.0 2.0 23 38
+ 0.457111 2 1 ack 40 ------- 1 2.0 0.0 23 62
- 0.457111 2 1 ack 40 ------- 1 2.0 0.0 23 62
r 0.457144 0 1 tcp 1040 ------- 1 0.0 2.0 28 44
+ 0.457144 1 2 tcp 1040 ------- 1 0.0 2.0 28 44
r 0.457511 2 1 ack 40 ------- 1 2.0 0.0 21 56
+ 0.457511 1 0 ack 40 ------- 1 2.0 0.0 21 56
- 0.457511 1 0 ack 40 ------- 1 2.0 0.0 21 56
r 0.457882 1 0 ack 40 ------- 1 2.0 0.0 19 50
+ 0.457882 0 1 tcp 1040 ------- 1 0.0 2.0 39 63
- 0.459624 0 1 tcp 1040 ------- 1 0.0 2.0 32 52
r 0.461304 0 1 tcp 1040 ------- 1 0.0 2.0 29 46
+ 0.461304 1 2 tcp 1040 ------- 1 0.0 2.0 29 46
- 0.461793 1 2 tcp 1040 ------- 1 0.0 2.0 27 43
r 0.462005 1 2 tcp 1040 ------- 1 0.0 2.0 24 39
+ 0.462005 2 1 ack 40 ------- 1 2.0 0.0 24 64
- 0.462005 2 1 ack 40 ------- 1 2.0 0.0 24 64
r 0.462405 2 1 ack 40 ------- 1 2.0 0.0 22 59
+ 0.462405 1 0 ack 40 ------- 1 2.0 0.0 22 59
- 0.462405 1 0 ack 40 ------- 1 2.0 0.0 22 59
r 0.462776 1 0 ack 40 ------- 1 2.0 0.0 20 53
+ 0.462776 0 1 tcp 1040 ------- 1 0.0 2.0 40 65
- 0.463784 0 1 tcp 1040 ------- 1 0.0 2.0 33 54
r 0.465464 0 1 tcp 1040 ------- 1 0.0 2.0 30 47
+ 0.465464 1 2 tcp 1040 ------- 1 0.0 2.0 30 47
- 0.466687 1 2 tcp 1040 ------- 1 0.0 2.0 28 44
r 0.466899 1 2 tcp 1040 ------- 1 0.0 2.0 25 40
+ 0.466899 2 1 ack 40 ------- 1 2.0 0.0 25 66
- 0.466899 2 1 ack 40 ------- 1 2.0 0.0 25 66
r 0.467299 2 1 ack 40 ------- 1 2.0 0.0 23 62
+ 0.467299 1 0 ack 40 ------- 1 2.0 0.0 23 62
- 0.467299 1 0 ack 40 ------- 1 2.0 0.0 23 62
r 0.467671 1 0 ack 40 ------- 1 2.0 0.0 21 56
+ 0.467671 0 1 tcp 1040 ------- 1 0.0 2.0 41 67
- 0.467944 0 1 tcp 1040 ------- 1 0.0 2.0 34 55
r 0.469624 0 1 tcp 1040 ------- 1 0.0 2.0 31 51
+ 0.469624 1 2 tcp 1040 ------- 1 0.0 2.0 31 51
- 0.471581 1 2 tcp 1040 ------- 1 0.0 2.0 29 46
r 0.471793 1 2 tcp 1040 ------- 1 0.0 2.0 26 41
+ 0.471793 2 1 ack 40 ------- 1 2.0 0.0 26 68
- 0.471793 2 1 ack 40 ------- 1 2.0 0.0 26 68
- 0.472104 0 1 tcp 1040 ------- 1 0.0 2.0 35 57
r 0.472193 2 1 ack 40 ------- 1 2.0 0.0 24 64
+ 0.472193 1 0 ack 40 ------- 1 2.0 0.0 24 64
- 0.472193 1 0 ack 40 ------- 1 2.0 0.0 24 64
r 0.472565 1 0 ack 40 ------- 1 2.0 0.0 22 59
+ 0.472565 0 1 tcp 1040 ------- 1 0.0 2.0 42 69
r 0.473784 0 1 tcp 1040 ------- 1 0.0 2.0 32 52
+ 0.473784 1 2 tcp 1040 ------- 1 0.0 2.0 32 52
- 0.476264 0 1 tcp 1040 ------- 1 0.0 2.0 36 58
- 0.476475 1 2 tcp 1040 ------- 1 0.0 2.0 30 47
r 0.476687 1 2 tcp 1040 ------- 1 0.0 2.0 27 43
+ 0.476687 2 1 ack 40 ------- 1 2.0 0.0 27 70
- 0.476687 2 1 ack 40 ------- 1 2.0 0.0 27 70
r 0.477087 2 1 ack 40 ------- 1 2.0 0.0 25 66
+ 0.477087 1 0 ack 40 ------- 1 2.0 0.0 25 66
- 0.477087 1 0 ack 40 ------- 1 2.0 0.0 25 66
r 0.477459 1 0 ack 40 ------- 1 2.0 0.0 23 62
+ 0.477459 0 1 tcp 1040 ------- 1 0.0 2.0 43 71
r 0.477944 0 1 tcp 1040 ------- 1 0.0 2.0 33 54
+ 0.477944 1 2 tcp 1040 ------- 1 0.0 2.0 33 54
- 0.480424 0 1 tcp 1040 ------- 1 0.0 2.0 37 60
- 0.481369 1 2 tcp 1040 ------- 1 0.0 2.0 31 51
r 0.481581 1 2 tcp 1040 ------- 1 0.0 2.0 28 44
+ 0.481581 2 1 ack 40 ------- 1 2.0 0.0 28 72
- 0.481581 2 1 ack 40 ------- 1 2.0 0.0 28 72
r 0.481981 2 1 ack 40 ------- 1 2.0 0.0 26 68
+ 0.481981 1 0 ack 40 ------- 1 2.0 0.0 26 68
- 0.481981 1 0 ack 40 ------- 1 2.0 0.0 26 68
r 0.482104 0 1 tcp 1040 ------- 1 0.0 2.0 34 55
+ 0.482104 1 2 tcp 1040 ------- 1 0.0 2.0 34 55
r 0.482353 1 0 ack 40 ------- 1 2.0 0.0 24 64
+ 0.482353 0 1 tcp 1040 ------- 1 0.0 2.0 44 73
- 0.484584 0 1 tcp 1040 ------- 1 0.0 2.0 38 61
r 0.486264 0 1 tcp 1040 ------- 1 0.0 2.0 35 57
+ 0.486264 1 2 tcp 1040 ------- 1 0.0 2.0 35 57
- 0.486264 1 2 tcp 1040 ------- 1 0.0 2.0 32 52
r 0.486475 1 2 tcp 1040 ------- 1 0.0 2.0 29 46
+ 0.486475 2 1 ack 40 ------- 1 2.0 0.0 29 74
- 0.486475 2 1 ack 40 ------- 1 2.0 0.0 29 74
r 0.486875 2 1 ack 40 ------- 1 2.0 0.0 27 70
+ 0.486875 1 0 ack 40 ------- 1 2.0 0.0 27 70
- 0.486875 1 0 ack 40 ------- 1 2.0 0.0 27 70
r 0.487247 1 0 ack 40 ------- 1 2.0 0.0 25 66
+ 0.487247 0 1 tcp 1040 ------- 1 0.0 2.0 45 75
- 0.488744 0 1 tcp 1040 ------- 1 0.0 2.0 39 63
r 0.490424 0 1 tcp 1040 ------- 1 0.0 2.0 36 58
+ 0.490424 1 2 tcp 1040 ------- 1 0.0 2.0 36 58
- 0.491158 1 2 tcp 1040 ------- 1 0.0 2.0 33 54
r 0.491369 1 2 tcp 1040 ------- 1 0.0 2.0 30 47
+ 0.491369 2 1 ack 40 ------- 1 2.0 0.0 30 76
- 0.491369 2 1 ack 40 ------- 1 2.0 0.0 30 76
r 0.491769 2 1 ack 40 ------- 1 2.0 0.0 28 72
+ 0.491769 1 0 ack 40 ------- 1 2.0 0.0 28 72
- 0.491769 1 0 ack 40 ------- 1 2.0 0.0 28 72
r 0.492141 1 0 ack 40 ------- 1 2.0 0.0 26 68
+ 0.492141 0 1 tcp 1040 ------- 1 0.0 2.0 46 77
- 0.492904 0 1 tcp 1040 ------- 1 0.0 2.0 40 65
r 0.494584 0 1 tcp 1040 ------- 1 0.0 2.0 37 60
+ 0.494584 1 2 tcp 1040 ------- 1 0.0 2.0 37 60
- 0.496052 1 2 tcp 1040 ------- 1 0.0 2.0 34 55
r 0.496264 1 2 tcp 1040 ------- 1 0.0 2.0 31 51
+ 0.496264 2 1 ack 40 ------- 1 2.0 0.0 31 78
- 0.496264 2 1 ack 40 ------- 1 2.0 0.0 31 78
r 0.496664 2 1 ack 40 ------- 1 2.0 0.0 29 74
+ 0.496664 1 0 ack 40 ------- 1 2.0 0.0 29 74
- 0.496664 1 0 ack 40 ------- 1 2.0 0.0 29 74
r 0.497035 1 0 ack 40 ------- 1 2.0 0.0 27 70
+ 0.497035 0 1 tcp 1040 ------- 1 0.0 2.0 47 79
- 0.497064 0 1 tcp 1040 ------- 1 0.0 2.0 41 67
r 0.498744 0 1 tcp 1040 ------- 1 0.0 2.0 38 61
+ 0.498744 1 2 tcp 1040 ------- 1 0.0 2.0 38 61
- 0.500946 1 2 tcp 1040 ------- 1 0.0 2.0 35 57
r 0.501158 1 2 tcp 1040 ------- 1 0.0 2.0 32 52
+ 0.501158 2 1 ack 40 ------- 1 2.0 0.0 32 80
- 0.501158 2 1 ack 40 ------- 1 2.0 0.0 32 80
- 0.501224 0 1 tcp 1040 ------- 1 0.0 2.0 42 69
r 0.501558 2 1 ack 40 ------- 1 2.0 0.0 30 76
+ 0.501558 1 0 ack 40 ------- 1 2.0 0.0 30 76
- 0.501558 1 0 ack 40 ------- 1 2.0 0.0 30 76
r 0.501929 1 0 ack 40 ------- 1 2.0 0.0 28 72
+ 0.501929 0 1 tcp 1040 ------- 1 0.0 2.0 48 81
r 0.502904 0 1 tcp 1040 ------- 1 0.0 2.0 39 63
+ 0.502904 1 2 tcp 1040 ------- 1 0.0 2.0 39 63
- 0.505384 0 1 tcp 1040 ------- 1 0.0 2.0 43 71
- 0.50584 1 2 tcp 1040 ------- 1 0.0 2.0 36 58
r 0.506052 1 2 tcp 1040 ------- 1 0.0 2.0 33 54
+ 0.506052 2 1 ack 40 ------- 1 2.0 0.0 33 82
- 0.506052 2 1 ack 40 ------- 1 2.0 0.0 33 82
r 0.506452 2 1 ack 40 ------- 1 2.0 0.0 31 78
+ 0.506452 1 0 ack 40 ------- 1 2.0 0.0 31 78
- 0.506452 1 0 ack 40 ------- 1 2.0 0.0 31 78
r 0.506824 1 0 ack 40 ------- 1 2.0 0.0 29 74
+ 0.506824 0 1 tcp 1040 ------- 1 0.0 2.0 49 83
r 0.507064 0 1 tcp 1040 ------- 1 0.0 2.0 40 65
+ 0.507064 1 2 tcp 1040 ------- 1 0.0 2.0 40 65
- 0.509544 0 1 tcp 1040 ------- 1 0.0 2.0 44 73
- 0.510734 1 2 tcp 1040 ------- 1 0.0 2.0 37 60
r 0.510946 1 2 tcp 1040 ------- 1 0.0 2.0 34 55
+ 0.510946 2 1 ack 40 ------- 1 2.0 0.0 34 84
- 0.510946 2 1 ack 40 ------- 1 2.0 0.0 34 84
r 0.511224 0 1 tcp 1040 ------- 1 0.0 2.0 41 67
+ 0.511224 1 2 tcp 1040 ------- 1 0.0 2.0 41 67
r 0.511346 2 1 ack 40 ------- 1 2.0 0.0 32 80
+ 0.511346 1 0 ack 40 ------- 1 2.0 0.0 32 80
- 0.511346 1 0 ack 40 ------- 1 2.0 0.0 32 80
r 0.511718 1 0 ack 40 ------- 1 2.0 0.0 30 76
+ 0.511718 0 1 tcp 1040 ------- 1 0.0 2.0 50 85
- 0.513704 0 1 tcp 1040 ------- 1 0.0 2.0 45 75
r 0.515384 0 1 tcp 1040 ------- 1 0.0 2.0 42 69
+ 0.515384 1 2 tcp 1040 ------- 1 0.0 2.0 42 69
d 0.515384 1 2 tcp 1040 ------- 1 0.0 2.0 42 69
- 0.515628 1 2 tcp 1040 ------- 1 0.0 2.0 38 61
r 0.51584 1 2 tcp 1040 ------- 1 0.0 2.0 35 57
+ 0.51584 2 1 ack 40 ------- 1 2.0 0.0 35 86
- 0.51584 2 1 ack 40 ------- 1 2.0 0.0 35 86
r 0.51624 2 1 ack 40 ------- 1 2.0 0.0 33 82
+ 0.51624 1 0 ack 40 ------- 1 2.0 0.0 33 82
- 0.51624 1 0 ack 40 ------- 1 2.0 0.0 33 82
r 0.516612 1 0 ack 40 ------- 1 2.0 0.0 31 78
+ 0.516612 0 1 tcp 1040 ------- 1 0.0 2.0 51 87
- 0.517864 0 1 tcp 1040 ------- 1 0.0 2.0 46 77
r 0.519544 0 1 tcp 1040 ------- 1 0.0 2.0 43 71
+ 0.519544 1 2 tcp 1040 ------- 1 0.0 2.0 43 71
- 0.520522 1 2 tcp 1040 ------- 1 0.0 2.0 39 63
r 0.520734 1 2 tcp 1040 ------- 1 0.0 2.0 36 58
+ 0.520734 2 1 ack 40 ------- 1 2.0 0.0 36 88
- 0.520734 2 1 ack 40 ------- 1 2.0 0.0 36 88
r 0.521134 2 1 ack 40 ------- 1 2.0 0.0 34 84
+ 0.521134 1 0 ack 40 ------- 1 2.0 0.0 34 84
- 0.521134 1 0 ack 40 ------- 1 2.0 0.0 34 84
r 0.521506 1 0 ack 40 ------- 1 2.0 0.0 32 80
+ 0.521506 0 1 tcp 1040 ------- 1 0.0 2.0 52 89
- 0.522024 0 1 tcp 1040 ------- 1 0.0 2.0 47 79
r 0.523704 0 1 tcp 1040 ------- 1 0.0 2.0 44 73
+ 0.523704 1 2 tcp 1040 ------- 1 0.0 2.0 44 73
- 0.525416 1 2 tcp 1040 ------- 1 0.0 2.0 40 65
r 0.525628 1 2 tcp 1040 ------- 1 0.0 2.0 37 60
+ 0.525628 2 1 ack 40 ------- 1 2.0 0.0 37 90
- 0.525628 2 1 ack 40 ------- 1 2.0 0.0 37 90
r 0.526028 2 1 ack 40 ------- 1 2.0 0.0 35 86
+ 0.526028 1 0 ack 40 ------- 1 2.0 0.0 35 86
- 0.526028 1 0 ack 40 ------- 1 2.0 0.0 35 86
- 0.526184 0 1 tcp 1040 ------- 1 0.0 2.0 48 81
r 0.5264 1 0 ack 40 ------- 1 2.0 0.0 33 82
+ 0.5264 0 1 tcp 1040 ------- 1 0.0 2.0 53 91
r 0.527864 0 1 tcp 1040 ------- 1 0.0 2.0 45 75
+ 0.527864 1 2 tcp 1040 ------- 1 0.0 2.0 45 75
- 0.530311 1 2 tcp 1040 ------- 1 0.0 2.0 41 67
- 0.530344 0 1 tcp 1040 ------- 1 0.0 2.0 49 83
r 0.530522 1 2 tcp 1040 ------- 1 0.0 2.0 38 61
+ 0.530522 2 1 ack 40 ------- 1 2.0 0.0 38 92
- 0.530522 2 1 ack 40 ------- 1 2.0 0.0 38 92
r 0.530922 2 1 ack 40 ------- 1 2.0 0.0 36 88
+ 0.530922 1 0 ack 40 ------- 1 2.0 0.0 36 88
- 0.530922 1 0 ack 40 ------- 1 2.0 0.0 36 88
r 0.531294 1 0 ack 40 ------- 1 2.0 0.0 34 84
+ 0.531294 0 1 tcp 1040 ------- 1 0.0 2.0 54 93
r 0.532024 0 1 tcp 1040 ------- 1 0.0 2.0 46 77
+ 0.532024 1 2 tcp 1040 ------- 1 0.0 2.0 46 77
- 0.534504 0 1 tcp 1040 ------- 1 0.0 2.0 50 85
- 0.535205 1 2 tcp 1040 ------- 1 0.0 2.0 43 71
r 0.535416 1 2 tcp 1040 ------- 1 0.0 2.0 39 63
+ 0.535416 2 1 ack 40 ------- 1 2.0 0.0 39 94
- 0.535416 2 1 ack 40 ------- 1 2.0 0.0 39 94
r 0.535816 2 1 ack 40 ------- 1 2.0 0.0 37 90
+ 0.535816 1 0 ack 40 ------- 1 2.0 0.0 37 90
- 0.535816 1 0 ack 40 ------- 1 2.0 0.0 37 90
r 0.536184 0 1 tcp 1040 ------- 1 0.0 2.0 47 79
+ 0.536184 1 2 tcp 1040 ------- 1 0.0 2.0 47 79
r 0.536188 1 0 ack 40 ------- 1 2.0 0.0 35 86
+ 0.536188 0 1 tcp 1040 ------- 1 0.0 2.0 55 95
- 0.538664 0 1 tcp 1040 ------- 1 0.0 2.0 51 87
- 0.540099 1 2 tcp 1040 ------- 1 0.0 2.0 44 73
r 0.540311 1 2 tcp 1040 ------- 1 0.0 2.0 40 65
+ 0.540311 2 1 ack 40 ------- 1 2.0 0.0 40 96
- 0.540311 2 1 ack 40 ------- 1 2.0 0.0 40 96
r 0.540344 0 1 tcp 1040 ------- 1 0.0 2.0 48 81
+ 0.540344 1 2 tcp 1040 ------- 1 0.0 2.0 48 81
r 0.540711 2 1 ack 40 ------- 1 2.0 0.0 38 92
+ 0.540711 1 0 ack 40 ------- 1 2.0 0.0 38 92
- 0.540711 1 0 ack 40 ------- 1 2.0 0.0 38 92
r 0.541082 1 0 ack 40 ------- 1 2.0 0.0 36 88
+ 0.541082 0 1 tcp 1040 ------- 1 0.0 2.0 56 97
- 0.542824 0 1 tcp 1040 ------- 1 0.0 2.0 52 89
r 0.544504 0 1 tcp 1040 ------- 1 0.0 2.0 49 83
+ 0.544504 1 2 tcp 1040 ------- 1 0.0 2.0 49 83
d 0.544504 1 2 tcp 1040 ------- 1 0.0 2.0 49 83
- 0.544993 1 2 tcp 1040 ------- 1 0.0 2.0 45 75
r 0.545205 1 2 tcp 1040 ------- 1 0.0 2.0 41 67
+ 0.545205 2 1 ack 40 ------- 1 2.0 0.0 41 98
- 0.545205 2 1 ack 40 ------- 1 2.0 0.0 41 98
r 0.545605 2 1 ack 40 ------- 1 2.0 0.0 39 94
+ 0.545605 1 0 ack 40 ------- 1 2.0 0.0 39 94
- 0.545605 1 0 ack 40 ------- 1 2.0 0.0 39 94
r 0.545976 1 0 ack 40 ------- 1 2.0 0.0 37 90
+ 0.545976 0 1 tcp 1040 ------- 1 0.0 2.0 57 99
- 0.546984 0 1 tcp 1040 ------- 1 0.0 2.0 53 91
r 0.548664 0 1 tcp 1040 ------- 1 0.0 2.0 50 85
+ 0.548664 1 2 tcp 1040 ------- 1 0.0 2.0 50 85
- 0.549887 1 2 tcp 1040 ------- 1 0.0 2.0 46 77
r 0.550099 1 2 tcp 1040 ------- 1 0.0 2.0 43 71
+ 0.550099 2 1 ack 40 ------- 1 2.0 0.0 41 100
- 0.550099 2 1 ack 40 ------- 1 2.0 0.0 41 100
r 0.550499 2 1 ack 40 ------- 1 2.0 0.0 40 96
+ 0.550499 1 0 ack 40 ------- 1 2.0 0.0 40 96
- 0.550499 1 0 ack 40 ------- 1 2.0 0.0 40 96
r 0.550871 1 0 ack 40 ------- 1 2.0 0.0 38 92
+ 0.550871 0 1 tcp 1040 ------- 1 0.0 2.0 58 101
- 0.551144 0 1 tcp 1040 ------- 1 0.0 2.0 54 93
r 0.552824 0 1 tcp 1040 ------- 1 0.0 2.0 51 87
+ 0.552824 1 2 tcp 1040 ------- 1 0.0 2.0 51 87
- 0.554781 1 2 tcp 1040 ------- 1 0.0 2.0 47 79
r 0.554993 1 2 tcp 1040 ------- 1 0.0 2.0 44 73
+ 0.554993 2 1 ack 40 ------- 1 2.0 0.0 41 102
- 0.554993 2 1 ack 40 ------- 1 2.0 0.0 41 102
- 0.555304 0 1 tcp 1040 ------- 1 0.0 2.0 55 95
r 0.555393 2 1 ack 40 ------- 1 2.0 0.0 41 98
+ 0.555393 1 0 ack 40 ------- 1 2.0 0.0 41 98
- 0.555393 1 0 ack 40 ------- 1 2.0 0.0 41 98
r 0.555765 1 0 ack 40 ------- 1 2.0 0.0 39 94
+ 0.555765 0 1 tcp 1040 ------- 1 0.0 2.0 59 103
r 0.556984 0 1 tcp 1040 ------- 1 0.0 2.0 52 89
+ 0.556984 1 2 tcp 1040 ------- 1 0.0 2.0 52 89
- 0.559464 0 1 tcp 1040 ------- 1 0.0 2.0 56 97
- 0.559675 1 2 tcp 1040 ------- 1 0.0 2.0 48 81
r 0.559887 1 2 tcp 1040 ------- 1 0.0 2.0 45 75
+ 0.559887 2 1 ack 40 ------- 1 2.0 0.0 41 104
- 0.559887 2 1 ack 40 ------- 1 2.0 0.0 41 104
r 0.560287 2 1 ack 40 ------- 1 2.0 0.0 41 100
+ 0.560287 1 0 ack 40 ------- 1 2.0 0.0 41 100
- 0.560287 1 0 ack 40 ------- 1 2.0 0.0 41 100
r 0.560659 1 0 ack 40 ------- 1 2.0 0.0 40 96
+ 0.560659 0 1 tcp 1040 ------- 1 0.0 2.0 60 105
r 0.561144 0 1 tcp 1040 ------- 1 0.0 2.0 53 91
+ 0.561144 1 2 tcp 1040 ------- 1 0.0 2.0 53 91
- 0.563624 0 1 tcp 1040 ------- 1 0.0 2.0 57 99
- 0.564569 1 2 tcp 1040 ------- 1 0.0 2.0 50 85
r 0.564781 1 2 tcp 1040 ------- 1 0.0 2.0 46 77
+ 0.564781 2 1 ack 40 ------- 1 2.0 0.0 41 106
- 0.564781 2 1 ack 40 ------- 1 2.0 0.0 41 106
r 0.565181 2 1 ack 40 ------- 1 2.0 0.0 41 102
+ 0.565181 1 0 ack 40 ------- 1 2.0 0.0 41 102
- 0.565181 1 0 ack 40 ------- 1 2.0 0.0 41 102
r 0.565304 0 1 tcp 1040 ------- 1 0.0 2.0 54 93
+ 0.565304 1 2 tcp 1040 ------- 1 0.0 2.0 54 93
r 0.565553 1 0 ack 40 ------- 1 2.0 0.0 41 98
+ 0.565553 0 1 tcp 1040 ------- 1 0.0 2.0 61 107
- 0.567784 0 1 tcp 1040 ------- 1 0.0 2.0 58 101
- 0.569464 1 2 tcp 1040 ------- 1 0.0 2.0 51 87
r 0.569464 0 1 tcp 1040 ------- 1 0.0 2.0 55 95
+ 0.569464 1 2 tcp 1040 ------- 1 0.0 2.0 55 95
r 0.569675 1 2 tcp 1040 ------- 1 0.0 2.0 47 79
+ 0.569675 2 1 ack 40 ------- 1 2.0 0.0 41 108
- 0.569675 2 1 ack 40 ------- 1 2.0 0.0 41 108
r 0.570075 2 1 ack 40 ------- 1 2.0 0.0 41 104
+ 0.570075 1 0 ack 40 ------- 1 2.0 0.0 41 104
- 0.570075 1 0 ack 40 ------- 1 2.0 0.0 41 104
r 0.570447 1 0 ack 40 ------- 1 2.0 0.0 41 100
- 0.571944 0 1 tcp 1040 ------- 1 0.0 2.0 59 103
r 0.573624 0 1 tcp 1040 ------- 1 0.0 2.0 56 97
+ 0.573624 1 2 tcp 1040 ------- 1 0.0 2.0 56 97
d 0.573624 1 2 tcp 1040 ------- 1 0.0 2.0 56 97
- 0.574358 1 2 tcp 1040 ------- 1 0.0 2.0 52 89
r 0.574569 1 2 tcp 1040 ------- 1 0.0 2.0 48 81
+ 0.574569 2 1 ack 40 ------- 1 2.0 0.0 41 109
- 0.574569 2 1 ack 40 ------- 1 2.0 0.0 41 109
r 0.574969 2 1 ack 40 ------- 1 2.0 0.0 41 106
+ 0.574969 1 0 ack 40 ------- 1 2.0 0.0 41 106
- 0.574969 1 0 ack 40 ------- 1 2.0 0.0 41 106
r 0.575341 1 0 ack 40 ------- 1 2.0 0.0 41 102
- 0.576104 0 1 tcp 1040 ------- 1 0.0 2.0 60 105
r 0.577784 0 1 tcp 1040 ------- 1 0.0 2.0 57 99
+ 0.577784 1 2 tcp 1040 ------- 1 0.0 2.0 57 99
- 0.579252 1 2 tcp 1040 ------- 1 0.0 2.0 53 91
r 0.579464 1 2 tcp 1040 ------- 1 0.0 2.0 50 85
+ 0.579464 2 1 ack 40 ------- 1 2.0 0.0 41 110
- 0.579464 2 1 ack 40 ------- 1 2.0 0.0 41 110
r 0.579864 2 1 ack 40 ------- 1 2.0 0.0 41 108
+ 0.579864 1 0 ack 40 ------- 1 2.0 0.0 41 108
- 0.579864 1 0 ack 40 ------- 1 2.0 0.0 41 108
r 0.580235 1 0 ack 40 ------- 1 2.0 0.0 41 104
+ 0.580235 0 1 tcp 1040 ---A--- 1 0.0 2.0 42 111
- 0.580264 0 1 tcp 1040 ------- 1 0.0 2.0 61 107
r 0.581944 0 1 tcp 1040 ------- 1 0.0 2.0 58 101
+ 0.581944 1 2 tcp 1040 ------- 1 0.0 2.0 58 101
- 0.584146 1 2 tcp 1040 ------- 1 0.0 2.0 54 93
r 0.584358 1 2 tcp 1040 ------- 1 0.0 2.0 51 87
+ 0.584358 2 1 ack 40 ------- 1 2.0 0.0 41 112
- 0.584358 2 1 ack 40 ------- 1 2.0 0.0 41 112
- 0.584424 0 1 tcp 1040 ---A--- 1 0.0 2.0 42 111
r 0.584758 2 1 ack 40 ------- 1 2.0 0.0 41 109
+ 0.584758 1 0 ack 40 ------- 1 2.0 0.0 41 109
- 0.584758 1 0 ack 40 ------- 1 2.0 0.0 41 109
r 0.585129 1 0 ack 40 ------- 1 2.0 0.0 41 106
r 0.586104 0 1 tcp 1040 ------- 1 0.0 2.0 59 103